Program Version,EnergyPlus, Version 24.2.0-94a887817b, YMD=2025.01.07 12:19
1,5,Environment Title[],Latitude[deg],Longitude[deg],Time Zone[],Elevation[m]
2,8,Day of Simulation[],Month[],Day of Month[],DST Indicator[1=yes 0=no],Hour[],StartMinute[],EndMinute[],DayType
3,5,Cumulative Day of Simulation[],Month[],Day of Month[],DST Indicator[1=yes 0=no],DayType  ! When Daily Report Variables Requested
4,2,Cumulative Days of Simulation[],Month[]  ! When Monthly Report Variables Requested
5,1,Cumulative Days of Simulation[] ! When Run Period Report Variables Requested
6,1,Calendar Year of Simulation[] ! When Annual Report Variables Requested
7,1,B1F_PUBLIC,Zone Mean Air Temperature [C] !Hourly
8,1,B1F_PUBLIC,Zone Air Heat Balance Surface Convection Rate [W] !Hourly
9,1,B1F_PUBLIC,Zone Air Heat Balance Air Energy Storage Rate [W] !Hourly
10,1,B1F_RETAIL,Zone Mean Air Temperature [C] !Hourly
11,1,B1F_RETAIL,Zone Air Heat Balance Surface Convection Rate [W] !Hourly
12,1,B1F_RETAIL,Zone Air Heat Balance Air Energy Storage Rate [W] !Hourly
13,1,B1F_PUBLIC,Zone Air Relative Humidity [%] !Hourly
14,1,B1F_PUBLIC,Zone Air System Sensible Heating Energy [J] !Hourly
99,1,B1F_PUBLIC,Zone Air System Sensible Cooling Energy [J] !Hourly
148,1,B1F_PUBLIC,Zone Air System Sensible Heating Rate [W] !Hourly
149,1,B1F_PUBLIC,Zone Air System Sensible Cooling Rate [W] !Hourly
150,1,B1F_RETAIL,Zone Air Relative Humidity [%] !Hourly
151,1,B1F_RETAIL,Zone Air System Sensible Heating Energy [J] !Hourly
188,1,B1F_RETAIL,Zone Air System Sensible Cooling Energy [J] !Hourly
213,1,B1F_RETAIL,Zone Air System Sensible Heating Rate [W] !Hourly
214,1,B1F_RETAIL,Zone Air System Sensible Cooling Rate [W] !Hourly
End of Data Dictionary
1,ANNUAL RUN,  23.17, 113.33,   8.00,  41.00
2,1, 1, 1, 0, 1, 0.00,60.00,Monday
7,18.273286802852372
8,-1678.732954903986
9,-1669.486270977769
10,19.008527433257264
11,-6076.639623730923
12,-6016.862981117467
13,45.030406150544295
14,0.0
99,0.0
148,0.0
149,0.0
150,43.00370431605046
151,0.0
188,0.0
213,0.0
214,0.0
2,1, 1, 1, 0, 2, 0.00,60.00,Monday
7,17.646116361677926
8,-1486.0261410383473
9,-1529.8075091959408
10,18.46381649725138
11,-6435.547573503291
12,-6406.001660133958
13,46.84252157568706
14,0.0
99,0.0
148,0.0
149,0.0
150,44.49450220378762
151,0.0
188,0.0
213,0.0
214,0.0
2,1, 1, 1, 0, 3, 0.00,60.00,Monday
7,17.102114722022666
8,-1333.4439875030994
9,-1347.0508865788815
10,17.896136745864695
11,-6647.400034097462
12,-6633.454345077165
13,48.480959719260234
14,0.0
99,0.0
148,0.0
149,0.0
150,46.110162710944394
151,0.0
188,0.0
213,0.0
214,0.0
2,1, 1, 1, 0, 4, 0.00,60.00,Monday
7,16.60443211699827
8,-1236.0315781178087
9,-1248.355295219196
10,17.326892906647732
11,-6418.563426383669
12,-6483.042808349362
13,50.036644564527435
14,0.0
99,0.0
148,0.0
149,0.0
150,47.79639553151023
151,0.0
188,0.0
213,0.0
214,0.0
2,1, 1, 1, 0, 5, 0.00,60.00,Monday
7,16.147677858332536
8,-1118.2341812745071
9,-1134.8413324027645
10,16.795922628593697
11,-5859.556146840766
12,-5939.933060274804
13,51.51378366980629
14,0.0
99,0.0
148,0.0
149,0.0
150,49.431630411274156
151,0.0
188,0.0
213,0.0
214,0.0
2,1, 1, 1, 0, 6, 0.00,60.00,Monday
7,15.734743322157788
8,-1027.7921097778049
9,-1036.353280694953
10,16.31601246362964
11,-5300.141106164498
12,-5366.478635346414
13,52.891521561968645
14,0.0
99,0.0
148,0.0
149,0.0
150,50.96381573769119
151,0.0
188,0.0
213,0.0
214,0.0
2,1, 1, 1, 0, 7, 0.00,60.00,Monday
7,15.346757389734353
8,-987.4608143294261
9,-991.490012632607
10,15.878307154667308
11,-4906.6446174744815
12,-4949.529361254737
13,54.22394944941257
14,0.0
99,0.0
148,0.0
149,0.0
150,52.407985315072196
151,0.0
188,0.0
213,0.0
214,0.0
2,1, 1, 1, 0, 8, 0.00,60.00,Monday
7,14.972766039492887
8,-945.1887309691188
9,-953.7368975792185
10,15.469140972518826
11,-4625.536884105297
12,-4663.045907677606
13,55.54405970596227
14,0.0
99,0.0
148,0.0
149,0.0
150,53.79971905604344
151,0.0
188,0.0
213,0.0
214,0.0
2,1, 1, 1, 0, 9, 0.00,60.00,Monday
7,14.638643025368438
8,-742.7378617819265
9,-784.5706040678987
10,15.091383046892378
11,-4087.9259995832354
12,-4190.647339670873
13,56.753589323864546
14,0.0
99,0.0
148,0.0
149,0.0
150,55.12137050460376
151,0.0
188,0.0
213,0.0
214,0.0
2,1, 1, 1, 0,10, 0.00,60.00,Monday
7,14.459970048450877
8,-113.05695846180492
9,-213.5231204107178
10,14.800782049386472
11,-2464.005554818077
12,-2741.68423220904
13,57.411924411519266
14,0.0
99,0.0
148,0.0
149,0.0
150,56.162360465078784
151,0.0
188,0.0
213,0.0
214,0.0
2,1, 1, 1, 0,11, 0.00,60.00,Monday
7,14.585686924257523
8,829.819570052211
9,690.1093074432024
10,14.704415053192836
11,415.87443197329117
12,-9.335371813924269
13,56.94826214094709
14,0.0
99,0.0
148,0.0
149,0.0
150,56.512237692877335
151,0.0
188,0.0
213,0.0
214,0.0
2,1, 1, 1, 0,12, 0.00,60.00,Monday
7,15.158649694528773
8,2168.2282597458684
9,1996.8078558297943
10,14.908134696475088
11,4436.2416228613665
12,3914.379999473068
13,54.88909358437816
14,0.0
99,0.0
148,0.0
149,0.0
150,55.775984429098635
151,0.0
188,0.0
213,0.0
214,0.0
2,1, 1, 1, 0,13, 0.00,60.00,Monday
7,16.144683733227634
8,2732.8898711007123
9,2716.452306801518
10,15.41510543362244
11,7315.708427219129
12,6971.206636514726
13,51.53204442169858
14,0.0
99,0.0
148,0.0
149,0.0
150,53.988933281948654
151,0.0
188,0.0
213,0.0
214,0.0
2,1, 1, 1, 0,14, 0.00,60.00,Monday
7,17.22159108765932
8,3460.442768666966
9,3236.9516699908513
10,16.121344320678187
11,10735.183692068915
12,9907.089758274478
13,48.123546229758205
14,0.0
99,0.0
148,0.0
149,0.0
150,51.60380815703176
151,0.0
188,0.0
213,0.0
214,0.0
2,1, 1, 1, 0,15, 0.00,60.00,Monday
7,18.490478294923598
8,3411.1176049008236
9,3447.3110340551725
10,17.025662473223345
11,11714.764451315927
12,11727.11284262772
13,44.43198706953582
14,0.0
99,0.0
148,0.0
149,0.0
150,48.723314160455814
151,0.0
188,0.0
213,0.0
214,0.0
2,1, 1, 1, 0,16, 0.00,60.00,Monday
7,19.721649380401658
8,2847.461612405909
9,2929.910869729004
10,18.043160275346878
11,11754.502662058692
12,11780.163153798967
13,41.14337603307108
14,0.0
99,0.0
148,0.0
149,0.0
150,45.69123410243162
151,0.0
188,0.0
213,0.0
214,0.0
2,1, 1, 1, 0,17, 0.00,60.00,Monday
7,20.62463014212793
8,1675.0616090483097
9,1843.1617304815447
10,19.017745618087776
11,10375.438828499744
12,10653.845707622419
13,38.90257746582351
14,0.0
99,0.0
148,0.0
149,0.0
150,42.982923776136246
151,0.0
188,0.0
213,0.0
214,0.0
2,1, 1, 1, 0,18, 0.00,60.00,Monday
7,21.031834844073934
8,433.40168676777864
9,574.5281528232803
10,19.779296497675542
11,6949.397314594433
12,7426.099957681428
13,37.93708105347542
14,0.0
99,0.0
148,0.0
149,0.0
150,40.99014351454316
151,0.0
188,0.0
213,0.0
214,0.0
2,1, 1, 1, 0,19, 0.00,60.00,Monday
7,21.02921631243123
8,-360.3358032611177
9,-287.8320536241389
10,20.226959099372973
11,3441.0180599634928
12,3838.0665624505377
13,37.94313137547936
14,0.0
99,0.0
148,0.0
149,0.0
150,39.867245194606674
151,0.0
188,0.0
213,0.0
214,0.0
2,1, 1, 1, 0,20, 0.00,60.00,Monday
7,20.79548835621404
8,-790.8178584170336
9,-747.807149786528
10,20.403602412449462
11,737.5479893915274
12,1036.2115324242063
13,38.493050290502346
14,0.0
99,0.0
148,0.0
149,0.0
150,39.433875976463284
151,0.0
188,0.0
213,0.0
214,0.0
2,1, 1, 1, 0,21, 0.00,60.00,Monday
7,20.423646825855176
8,-1081.6829942154873
9,-1052.5324437678853
10,20.375393265838
11,-1273.1436850139908
12,-1056.8629169019787
13,39.386267241307785
14,0.0
99,0.0
148,0.0
149,0.0
150,39.50269027127695
151,0.0
188,0.0
213,0.0
214,0.0
2,1, 1, 1, 0,22, 0.00,60.00,Monday
7,19.970059209499688
8,-1200.5868333727976
9,-1195.5280910012768
10,20.20404501683382
11,-2549.6211543507707
12,-2417.1604924242993
13,40.50716164844177
14,0.0
99,0.0
148,0.0
149,0.0
150,39.923503905030124
151,0.0
188,0.0
213,0.0
214,0.0
2,1, 1, 1, 0,23, 0.00,60.00,Monday
7,19.48713108945777
8,-1313.0781131209906
9,-1282.1885998363593
10,19.92104514415844
11,-4027.928199476466
12,-3821.623603474362
13,41.74013124018309
14,0.0
99,0.0
148,0.0
149,0.0
150,40.62970740656007
151,0.0
188,0.0
213,0.0
214,0.0
2,1, 1, 1, 0,24, 0.00,60.00,Monday
7,18.91299444245228
8,-1592.3180150434514
9,-1571.6010803913623
10,19.509104716969112
11,-5345.32871800644
12,-5213.556761723088
13,43.26182703277197
14,0.0
99,0.0
148,0.0
149,0.0
150,41.68282719513479
151,0.0
188,0.0
213,0.0
214,0.0
2,2, 1, 2, 0, 1, 0.00,60.00,Tuesday
7,18.27298117458826
8,-1681.9254225181828
9,-1671.5667131593573
10,19.00841427979845
11,-6081.412634120196
12,-6019.88210652973
13,45.02572095017797
14,0.0
99,0.0
148,0.0
149,0.0
150,42.99870559546409
151,0.0
188,0.0
213,0.0
214,0.0
2,2, 1, 2, 0, 2, 0.00,60.00,Tuesday
7,17.641496925253783
8,-1502.7785464669819
9,-1545.8349294242096
10,18.461734229952285
11,-6476.656983401664
12,-6442.295148644078
13,46.8470313079234
14,0.0
99,0.0
148,0.0
149,0.0
150,44.49159525981763
151,0.0
188,0.0
213,0.0
214,0.0
2,2, 1, 2, 0, 3, 0.00,60.00,Tuesday
7,17.097041650804332
8,-1307.7790504589052
9,-1329.7839086579547
10,17.891625451828506
11,-6631.701188504986
12,-6634.118616368794
13,48.48692448912329
14,0.0
99,0.0
148,0.0
149,0.0
150,46.11418632534465
151,0.0
188,0.0
213,0.0
214,0.0
2,2, 1, 2, 0, 4, 0.00,60.00,Tuesday
7,16.62097634200813
8,-1151.1964349779246
9,-1170.2373774570442
10,17.331078753636795
11,-6219.406081951052
12,-6309.415692534249
13,49.97393235825372
14,0.0
99,0.0
148,0.0
149,0.0
150,47.77419631077742
151,0.0
188,0.0
213,0.0
214,0.0
2,2, 1, 2, 0, 5, 0.00,60.00,Tuesday
7,16.205049114021023
8,-1001.3306734861436
9,-1018.351205476906
10,16.825488816176506
11,-5481.377376832239
12,-5578.440984354249
13,51.31510317944264
14,0.0
99,0.0
148,0.0
149,0.0
150,49.32893825602696
151,0.0
188,0.0
213,0.0
214,0.0
2,2, 1, 2, 0, 6, 0.00,60.00,Tuesday
7,15.83025525504933
8,-949.0655496751928
9,-953.0974793759779
10,16.379385598615215
11,-4917.245730236302
12,-4976.38850520561
13,52.558600433710296
14,0.0
99,0.0
148,0.0
149,0.0
150,50.74817067967541
151,0.0
188,0.0
213,0.0
214,0.0
2,2, 1, 2, 0, 7, 0.00,60.00,Tuesday
7,15.481130455103468
8,-848.4169472073404
9,-863.7155251138812
10,15.97686735605823
11,-4429.23157057507
12,-4495.314839313013
13,53.74728817729525
14,0.0
99,0.0
148,0.0
149,0.0
150,52.06822582733159
151,0.0
188,0.0
213,0.0
214,0.0
2,2, 1, 2, 0, 8, 0.00,60.00,Tuesday
7,15.16337838231754
8,-814.1050781851507
9,-814.4797308904663
10,15.6138971251929
11,-4058.666921821997
12,-4094.044742751926
13,54.85559807264853
14,0.0
99,0.0
148,0.0
149,0.0
150,53.291765377023324
151,0.0
188,0.0
213,0.0
214,0.0
2,2, 1, 2, 0, 9, 0.00,60.00,Tuesday
7,14.867116866906848
8,-677.2959493251351
9,-710.5116342713666
10,15.28024411316093
11,-3647.676942433318
12,-3726.054364870309
13,55.91187578001741
14,0.0
99,0.0
148,0.0
149,0.0
150,54.4449895497283
151,0.0
188,0.0
213,0.0
214,0.0
2,2, 1, 2, 0,10, 0.00,60.00,Tuesday
7,14.691978818461205
8,-171.50817313868447
9,-253.05252071895492
10,15.014400776547234
11,-2363.6776327174293
12,-2585.6016113791
13,56.5465396239074
14,0.0
99,0.0
148,0.0
149,0.0
150,55.38350889938884
151,0.0
188,0.0
213,0.0
214,0.0
2,2, 1, 2, 0,11, 0.00,60.00,Tuesday
7,14.774151049928927
8,662.6445407450378
9,537.5746438945948
10,14.908103537484639
11,86.5113051678004
12,-284.44504948353085
13,56.24807439702964
14,0.0
99,0.0
148,0.0
149,0.0
150,55.76365446062997
151,0.0
188,0.0
213,0.0
214,0.0
2,2, 1, 2, 0,12, 0.00,60.00,Tuesday
7,15.203116004659364
8,1457.9827274405814
9,1396.2847466941319
10,15.04826496994531
11,3094.4258809847584
12,2758.8457937734747
13,54.71780848298224
14,0.0
99,0.0
148,0.0
149,0.0
150,55.26318190982689
151,0.0
188,0.0
213,0.0
214,0.0
2,2, 1, 2, 0,13, 0.00,60.00,Tuesday
7,15.8102128060087
8,1647.1159677552614
9,1632.0409925327322
10,15.392316180128663
11,4633.850924736896
12,4537.440715780633
13,52.62861158405293
14,0.0
99,0.0
148,0.0
149,0.0
150,54.05506867597937
151,0.0
188,0.0
213,0.0
214,0.0
2,2, 1, 2, 0,14, 0.00,60.00,Tuesday
7,16.44838583329291
8,1582.2254795888375
9,1609.6554159676302
10,15.814073726864507
11,5214.500830575542
12,5118.978674410171
13,50.527380314958684
14,0.0
99,0.0
148,0.0
149,0.0
150,52.61366495231737
151,0.0
188,0.0
213,0.0
214,0.0
2,2, 1, 2, 0,15, 0.00,60.00,Tuesday
7,17.083713995012058
8,1863.6324496048937
9,1773.005348961951
10,16.30931977666543
11,6462.572969905203
12,6251.8769623332455
13,48.53009146481705
14,0.0
99,0.0
148,0.0
149,0.0
150,50.976445770505244
151,0.0
188,0.0
213,0.0
214,0.0
2,2, 1, 2, 0,16, 0.00,60.00,Tuesday
7,17.96498143547615
8,2685.191966927102
9,2583.5030146786903
10,16.947651066577745
11,8357.412287695237
12,8123.875498326755
13,45.907900996630616
14,0.0
99,0.0
148,0.0
149,0.0
150,48.95056748379805
151,0.0
188,0.0
213,0.0
214,0.0
2,2, 1, 2, 0,17, 0.00,60.00,Tuesday
7,19.010887131125862
8,2364.201657881587
9,2502.262479785836
10,17.70879374113477
11,8883.728505985366
12,8940.569677505684
13,42.99329441069695
14,0.0
99,0.0
148,0.0
149,0.0
150,46.65066621823725
151,0.0
188,0.0
213,0.0
214,0.0
2,2, 1, 2, 0,18, 0.00,60.00,Tuesday
7,19.6796283002381
8,1044.1737732783292
9,1204.8971730989037
10,18.414951817929214
11,7182.9577790864905
12,7462.7872981367545
13,41.235025903551545
14,0.0
99,0.0
148,0.0
149,0.0
150,44.62286170774978
151,0.0
188,0.0
213,0.0
214,0.0
2,2, 1, 2, 0,19, 0.00,60.00,Tuesday
7,19.8825114389336
8,65.93421116647448
9,164.73105878136502
10,18.925867952884204
11,4496.04304360126
12,4856.3125497680785
13,40.71803518210886
14,0.0
99,0.0
148,0.0
149,0.0
150,43.216806337286435
151,0.0
188,0.0
213,0.0
214,0.0
2,2, 1, 2, 0,20, 0.00,60.00,Tuesday
7,19.790550085847446
8,-466.2362650581442
9,-420.52342401174144
10,19.201379578714732
11,1959.2992049981947
12,2237.6008730269555
13,40.95116764170986
14,0.0
99,0.0
148,0.0
149,0.0
150,42.47933485862997
151,0.0
188,0.0
213,0.0
214,0.0
2,2, 1, 2, 0,21, 0.00,60.00,Tuesday
7,19.549567766466975
8,-738.0975058715824
9,-711.9929433552858
10,19.287237702028747
11,116.1948335188375
12,316.30778290817574
13,41.56898666634413
14,0.0
99,0.0
148,0.0
149,0.0
150,42.25248768584176
151,0.0
188,0.0
213,0.0
214,0.0
2,2, 1, 2, 0,22, 0.00,60.00,Tuesday
7,19.23176556443058
8,-866.2938935872871
9,-855.8580278859921
10,19.23910364757198
11,-1145.5873541494204
12,-1005.929627844214
13,42.399587014110736
14,0.0
99,0.0
148,0.0
149,0.0
150,42.37944735349437
151,0.0
188,0.0
213,0.0
214,0.0
2,2, 1, 2, 0,23, 0.00,60.00,Tuesday
7,18.839702552266598
8,-1187.2051057310657
9,-1133.754685695266
10,19.07644688042308
11,-2684.763052475239
12,-2469.616221511938
13,43.45056974244295
14,0.0
99,0.0
148,0.0
149,0.0
150,42.81175402338728
151,0.0
188,0.0
213,0.0
214,0.0
2,2, 1, 2, 0,24, 0.00,60.00,Tuesday
7,18.3243391481241
8,-1417.046258583485
9,-1400.6816050946563
10,18.778798799498315
11,-4088.2993805404903
12,-3941.8752495998656
13,44.876582161627
14,0.0
99,0.0
148,0.0
149,0.0
150,43.61566274381633
151,0.0
188,0.0
213,0.0
214,0.0
2,3, 1, 3, 0, 1, 0.00,60.00,Wednesday
7,17.761199816684545
8,-1408.7762834730397
9,-1430.8704336499366
10,18.38049015533836
11,-5029.183912398948
12,-4933.850213415702
13,46.49726934488798
14,0.0
99,0.0
148,0.0
149,0.0
150,44.720629095576584
151,0.0
188,0.0
213,0.0
214,0.0
2,3, 1, 3, 0, 2, 0.00,60.00,Wednesday
7,17.251687669677555
8,-1229.9721705097243
9,-1247.2744052494345
10,17.917557994628083
11,-5596.545230065613
12,-5548.339815506564
13,48.018934792682536
14,0.0
99,0.0
148,0.0
149,0.0
150,46.0427211768903
151,0.0
188,0.0
213,0.0
214,0.0
2,3, 1, 3, 0, 3, 0.00,60.00,Wednesday
7,16.797661616584797
8,-1112.2135535848452
9,-1127.1509207840547
10,17.428999502464404
11,-5583.063995038003
12,-5625.480418476752
13,49.420708958891026
14,0.0
99,0.0
148,0.0
149,0.0
150,47.48357827281283
151,0.0
188,0.0
213,0.0
214,0.0
2,3, 1, 3, 0, 4, 0.00,60.00,Wednesday
7,16.391132252389593
8,-986.0749500560743
9,-1001.8634224118614
10,16.964767126723988
11,-5132.96562563712
12,-5201.458765500463
13,50.71488857139798
14,0.0
99,0.0
148,0.0
149,0.0
150,48.89946133512493
151,0.0
188,0.0
213,0.0
214,0.0
2,3, 1, 3, 0, 5, 0.00,60.00,Wednesday
7,16.026627070347843
8,-905.1968270377818
9,-913.654399159909
10,16.543257859929362
11,-4657.8697585987375
12,-4715.284043566927
13,51.90782498617119
14,0.0
99,0.0
148,0.0
149,0.0
150,50.22619829932198
151,0.0
188,0.0
213,0.0
214,0.0
2,3, 1, 3, 0, 6, 0.00,60.00,Wednesday
7,15.693437536138864
8,-811.8851237143937
9,-826.0836673004385
10,16.161319418165426
11,-4208.608126916173
12,-4269.159173864939
13,53.02585118760848
14,0.0
99,0.0
148,0.0
149,0.0
150,51.46337973443411
151,0.0
188,0.0
213,0.0
214,0.0
2,3, 1, 3, 0, 7, 0.00,60.00,Wednesday
7,15.400969262377119
8,-708.6414843462519
9,-719.5216413896935
10,15.820175035456643
11,-3730.5523652922484
12,-3789.782886271421
13,54.02951319055077
14,0.0
99,0.0
148,0.0
149,0.0
150,52.5973785278955
151,0.0
188,0.0
213,0.0
214,0.0
2,3, 1, 3, 0, 8, 0.00,60.00,Wednesday
7,15.134636308155875
8,-685.4707689851675
9,-684.8795465254752
10,15.515136086603238
11,-3412.6080423242847
12,-3441.0839476900287
13,54.96223093506432
14,0.0
99,0.0
148,0.0
149,0.0
150,53.63522988598055
151,0.0
188,0.0
213,0.0
214,0.0
2,3, 1, 3, 0, 9, 0.00,60.00,Wednesday
7,14.881331986383824
8,-584.7708924625435
9,-613.6855576510072
10,15.233047494698969
11,-3105.855418490124
12,-3167.986962962033
13,55.865977586380765
14,0.0
99,0.0
148,0.0
149,0.0
150,54.61550015055756
151,0.0
188,0.0
213,0.0
214,0.0
2,3, 1, 3, 0,10, 0.00,60.00,Wednesday
7,14.773762492103723
8,200.29822038559405
9,45.310552356564074
10,15.021442146620338
11,-1434.4057602317953
12,-1777.0024215000597
13,56.25442432673273
14,0.0
99,0.0
148,0.0
149,0.0
150,55.36359355873634
151,0.0
188,0.0
213,0.0
214,0.0
2,3, 1, 3, 0,11, 0.00,60.00,Wednesday
7,15.105082200780224
8,1441.6528915460058
9,1319.5084980049126
10,15.051302514725519
11,2237.7018650549817
12,1763.00560509345
13,55.06931506306245
14,0.0
99,0.0
148,0.0
149,0.0
150,55.257470455440455
151,0.0
188,0.0
213,0.0
214,0.0
2,3, 1, 3, 0,12, 0.00,60.00,Wednesday
7,15.75175758912062
8,1778.784323189679
9,1773.953187111104
10,15.362982149885013
11,4657.181055326695
12,4477.805050179921
13,52.83176718606356
14,0.0
99,0.0
148,0.0
149,0.0
150,54.162325823918636
151,0.0
188,0.0
213,0.0
214,0.0
2,3, 1, 3, 0,13, 0.00,60.00,Wednesday
7,16.455903175521392
8,1899.6835869863958
9,1863.8637439882345
10,15.804659552033288
11,5758.3484796566445
12,5557.736541496083
13,50.50956316119406
14,0.0
99,0.0
148,0.0
149,0.0
150,52.65094457299969
151,0.0
188,0.0
213,0.0
214,0.0
2,3, 1, 3, 0,14, 0.00,60.00,Wednesday
7,17.325357705524834
8,2628.4892684146607
9,2531.63263694472
10,16.408172012771605
11,8302.704734712333
12,7990.49075703599
13,47.80256762390889
14,0.0
99,0.0
148,0.0
149,0.0
150,50.663190301213135
151,0.0
188,0.0
213,0.0
214,0.0
2,3, 1, 3, 0,15, 0.00,60.00,Wednesday
7,18.3875878334101
8,2673.962362681323
9,2715.670443570856
10,17.175830234148073
11,9168.248631676794
12,9158.929191787633
13,44.70938497914098
14,0.0
99,0.0
148,0.0
149,0.0
150,48.25346539499379
151,0.0
188,0.0
213,0.0
214,0.0
2,3, 1, 3, 0,16, 0.00,60.00,Wednesday
7,19.306274427394044
8,2003.1374026814851
9,2090.3854891966193
10,17.953473954221657
11,8714.957985059013
12,8797.436308937078
13,42.2109804293353
14,0.0
99,0.0
148,0.0
149,0.0
150,45.94141667524455
151,0.0
188,0.0
213,0.0
214,0.0
2,3, 1, 3, 0,17, 0.00,60.00,Wednesday
7,19.95777834662069
8,1321.8004763408294
9,1408.334508657342
10,18.67175511284085
11,7764.29138401131
12,7914.02054916122
13,40.534337824361195
14,0.0
99,0.0
148,0.0
149,0.0
150,43.915517378465864
151,0.0
188,0.0
213,0.0
214,0.0
2,3, 1, 3, 0,18, 0.00,60.00,Wednesday
7,20.328504248826377
8,562.7501996267998
9,658.6473296985357
10,19.265830734766418
11,5762.484493975055
12,6056.505275238931
13,39.61363117179094
14,0.0
99,0.0
148,0.0
149,0.0
150,42.31484550187642
151,0.0
188,0.0
213,0.0
214,0.0
2,3, 1, 3, 0,19, 0.00,60.00,Wednesday
7,20.41425815304363
8,-95.11462600068859
9,-22.88588944708208
10,19.660689444050167
11,3312.2680022383674
12,3615.8659929149508
13,39.404048094938155
14,0.0
99,0.0
148,0.0
149,0.0
150,41.28702033368086
151,0.0
188,0.0
213,0.0
214,0.0
2,3, 1, 3, 0,20, 0.00,60.00,Wednesday
7,20.279350379036263
8,-558.379797410417
9,-511.3356349605765
10,19.85019568870169
11,1118.173974585443
12,1366.6290435710284
13,39.73414226238882
14,0.0
99,0.0
148,0.0
149,0.0
150,40.80377607399339
151,0.0
188,0.0
213,0.0
214,0.0
2,3, 1, 3, 0,21, 0.00,60.00,Wednesday
7,20.003493071778408
8,-818.1725998119359
9,-794.9865867486579
10,19.871502401142767
11,-537.8342814471816
12,-359.16605301365496
13,40.418564484142756
14,0.0
99,0.0
148,0.0
149,0.0
150,40.74985054161328
151,0.0
188,0.0
213,0.0
214,0.0
2,3, 1, 3, 0,22, 0.00,60.00,Wednesday
7,19.652597405469873
8,-959.0248268309404
9,-945.9795488531763
10,19.771726850069477
11,-1659.5701890353168
12,-1549.9848409350534
13,41.30818170998137
14,0.0
99,0.0
148,0.0
149,0.0
150,41.00296528800294
151,0.0
188,0.0
213,0.0
214,0.0
2,3, 1, 3, 0,23, 0.00,60.00,Wednesday
7,19.261318017869307
8,-1059.8060486964573
9,-1038.811142273827
10,19.579435917350317
11,-2855.553440774536
12,-2671.759256887608
13,42.326139958716965
14,0.0
99,0.0
148,0.0
149,0.0
150,41.49581044179176
151,0.0
188,0.0
213,0.0
214,0.0
2,3, 1, 3, 0,24, 0.00,60.00,Wednesday
7,18.796534896970297
8,-1309.71672558402
9,-1285.3065185664834
10,19.273091706356112
11,-4124.143772441007
12,-3990.0091241922455
13,43.572618301583006
14,0.0
99,0.0
148,0.0
149,0.0
150,42.294821424171985
151,0.0
188,0.0
213,0.0
214,0.0
2,4, 1, 4, 0, 1, 0.00,60.00,Thursday
7,18.257153769168298
8,-1451.1669734840157
9,-1434.2149083119905
10,18.8748386537909
11,-4977.128907117737
12,-4890.773712871784
13,45.02627822821582
14,0.0
99,0.0
148,0.0
149,0.0
150,43.316553443729134
151,0.0
188,0.0
213,0.0
214,0.0
2,4, 1, 4, 0, 2, 0.00,60.00,Thursday
7,17.70116959557685
8,-1330.5024882583452
9,-1368.7205762783228
10,18.418603692018188
11,-5460.196767942846
12,-5422.496200591881
13,46.60162148726421
14,0.0
99,0.0
148,0.0
149,0.0
150,44.54558787863548
151,0.0
188,0.0
213,0.0
214,0.0
2,4, 1, 4, 0, 3, 0.00,60.00,Thursday
7,17.224358623368314
8,-1139.4349320256274
9,-1157.0545809122411
10,17.934858782843843
11,-5654.596074814353
12,-5643.937557790227
13,48.0261355206392
14,0.0
99,0.0
148,0.0
149,0.0
150,45.920310656479074
151,0.0
188,0.0
213,0.0
214,0.0
2,4, 1, 4, 0, 4, 0.00,60.00,Thursday
7,16.807721373921424
8,-1009.5826881727961
9,-1024.6211529636275
10,17.451632856562053
11,-5402.804539164974
12,-5468.69856065292
13,49.3111843653835
14,0.0
99,0.0
148,0.0
149,0.0
150,47.34102515877232
151,0.0
188,0.0
213,0.0
214,0.0
2,4, 1, 4, 0, 5, 0.00,60.00,Thursday
7,16.4316846122018
8,-937.7239035163144
9,-944.2515218278141
10,17.005082796218044
11,-4928.701555666545
12,-4987.069795507648
13,50.50438223048186
14,0.0
99,0.0
148,0.0
149,0.0
150,48.69777103392238
151,0.0
188,0.0
213,0.0
214,0.0
2,4, 1, 4, 0, 6, 0.00,60.00,Thursday
7,16.077567959667338
8,-892.2296206598526
9,-897.1995073013751
10,16.596782557561426
11,-4543.936475963864
12,-4588.658567352833
13,51.65779520754647
14,0.0
99,0.0
148,0.0
149,0.0
150,49.97667265272143
151,0.0
188,0.0
213,0.0
214,0.0
2,4, 1, 4, 0, 7, 0.00,60.00,Thursday
7,15.733991606250516
8,-888.3312764930583
9,-887.6572682957274
10,16.21604113190851
11,-4314.178712516748
12,-4336.187161426684
13,52.805314046960106
14,0.0
99,0.0
148,0.0
149,0.0
150,51.20340844741797
151,0.0
188,0.0
213,0.0
214,0.0
2,4, 1, 4, 0, 8, 0.00,60.00,Thursday
7,15.394807439486765
8,-847.0815451459132
9,-859.2593460839523
10,15.851495323018039
11,-4131.461398115082
12,-4164.184020013456
13,53.9662088253532
14,0.0
99,0.0
148,0.0
149,0.0
150,52.409749582946674
151,0.0
188,0.0
213,0.0
214,0.0
2,4, 1, 4, 0, 9, 0.00,60.00,Thursday
7,15.108335495262796
8,-593.3179431213496
9,-638.5560634953396
10,15.517647007661273
11,-3518.1357314599304
12,-3632.975813846162
13,54.96856437097219
14,0.0
99,0.0
148,0.0
149,0.0
150,53.5423126147299
151,0.0
188,0.0
213,0.0
214,0.0
2,4, 1, 4, 0,10, 0.00,60.00,Thursday
7,14.964961884176736
8,-114.67083473682465
9,-185.31158151922568
10,15.268830047724922
11,-2138.4921257571114
12,-2353.6670809144052
13,55.47781771344239
14,0.0
99,0.0
148,0.0
149,0.0
150,54.403963104548325
151,0.0
188,0.0
213,0.0
214,0.0
2,4, 1, 4, 0,11, 0.00,60.00,Thursday
7,15.054925574787642
8,651.7855662138229
9,532.1448028874465
10,15.17567029417231
11,152.30787700946064
12,-193.71846194781745
13,55.157946647765186
14,0.0
99,0.0
148,0.0
149,0.0
150,54.73044979368491
151,0.0
188,0.0
213,0.0
214,0.0
2,4, 1, 4, 0,12, 0.00,60.00,Thursday
7,15.513514354694319
8,1722.7173506389677
9,1591.400699671627
10,15.325191886197068
11,3398.345790468479
12,2978.8054764958915
13,53.55993176161509
14,0.0
99,0.0
148,0.0
149,0.0
150,54.207810394643154
151,0.0
188,0.0
213,0.0
214,0.0
2,4, 1, 4, 0,13, 0.00,60.00,Thursday
7,16.31360905276572
8,2255.3715108978186
9,2231.25425564307
10,15.727589707684668
11,5838.86794545291
12,5557.204008745126
13,50.89146354378728
14,0.0
99,0.0
148,0.0
149,0.0
150,52.82821002614088
151,0.0
188,0.0
213,0.0
214,0.0
2,4, 1, 4, 0,14, 0.00,60.00,Thursday
7,17.295688804599777
8,3113.4323492481417
9,2962.545020044462
10,16.351557044940698
11,9162.203218468016
12,8723.332472567206
13,47.81874524802184
14,0.0
99,0.0
148,0.0
149,0.0
150,50.76648847804749
151,0.0
188,0.0
213,0.0
214,0.0
2,4, 1, 4, 0,15, 0.00,60.00,Thursday
7,18.65120571404733
8,3839.801713801733
9,3850.4333663299676
10,17.233541129197558
11,11817.278862415285
12,11721.666406795164
13,43.917508139485705
14,0.0
99,0.0
148,0.0
149,0.0
150,48.00586587122982
151,0.0
188,0.0
213,0.0
214,0.0
2,4, 1, 4, 0,16, 0.00,60.00,Thursday
7,20.000029341970368
8,2951.8204263310354
9,3048.6682512376265
10,18.287537753762923
11,12253.31722551206
12,12268.79366339006
13,40.372338233577416
14,0.0
99,0.0
148,0.0
149,0.0
150,44.92065995684739
151,0.0
188,0.0
213,0.0
214,0.0
2,4, 1, 4, 0,17, 0.00,60.00,Thursday
7,20.920381550554808
8,1681.8713254538948
9,1856.8439700263275
10,19.300950856489287
11,10642.508759020351
12,10976.310216838765
13,38.13672427965483
14,0.0
99,0.0
148,0.0
149,0.0
150,42.16037966185401
151,0.0
188,0.0
213,0.0
214,0.0
2,4, 1, 4, 0,18, 0.00,60.00,Thursday
7,21.3123102048679
8,340.5522297990892
9,494.9021428043294
10,20.073261782979877
11,6872.221050017802
12,7393.8443984511505
13,37.22711744200798
14,0.0
99,0.0
148,0.0
149,0.0
150,40.18276726128328
151,0.0
188,0.0
213,0.0
214,0.0
2,4, 1, 4, 0,19, 0.00,60.00,Thursday
7,21.258232633421127
8,-513.600045592189
9,-438.697773925565
10,20.50118366599816
11,3065.7413707913174
12,3490.7114774340453
13,37.35094019300642
14,0.0
99,0.0
148,0.0
149,0.0
150,39.13200543166896
151,0.0
188,0.0
213,0.0
214,0.0
2,4, 1, 4, 0,20, 0.00,60.00,Thursday
7,20.969974259508746
8,-896.5850463521535
9,-863.8205676747731
10,20.641430861289766
11,312.3441772117022
12,604.5481089346769
13,38.01858182796635
14,0.0
99,0.0
148,0.0
149,0.0
150,38.79454146059834
151,0.0
188,0.0
213,0.0
214,0.0
2,4, 1, 4, 0,21, 0.00,60.00,Thursday
7,20.56997474307936
8,-1116.9243886524928
9,-1095.7782988046465
10,20.58024902770277
11,-1584.6688205059456
12,-1386.9791762028044
13,38.967091019689406
14,0.0
99,0.0
148,0.0
149,0.0
150,38.94127324846627
151,0.0
188,0.0
213,0.0
214,0.0
2,4, 1, 4, 0,22, 0.00,60.00,Thursday
7,20.114386573985268
8,-1170.7077526004548
9,-1173.6332860568234
10,20.38802491074678
11,-2679.316798920165
12,-2582.905901121835
13,40.07959553073564
14,0.0
99,0.0
148,0.0
149,0.0
150,39.40621068948653
151,0.0
188,0.0
213,0.0
214,0.0
2,4, 1, 4, 0,23, 0.00,60.00,Thursday
7,19.662307053459564
8,-1125.1083376488666
9,-1132.8571018035557
10,20.113453270256706
11,-3653.9850804820508
12,-3516.725827037015
13,41.218717637098706
14,0.0
99,0.0
148,0.0
149,0.0
150,40.08116531366327
151,0.0
188,0.0
213,0.0
214,0.0
2,4, 1, 4, 0,24, 0.00,60.00,Thursday
7,19.20930347278555
8,-1213.569972811899
9,-1195.297275528407
10,19.75525314738659
11,-4481.045333013886
12,-4403.95033636092
13,42.39717464444052
14,0.0
99,0.0
148,0.0
149,0.0
150,40.981266062592894
151,0.0
188,0.0
213,0.0
214,0.0
2,5, 1, 5, 0, 1, 0.00,60.00,Friday
7,18.722413124386694
8,-1252.5852525975915
9,-1254.913185486457
10,19.343458798967944
11,-4896.612976642076
12,-4865.2285097870945
13,43.63048116674712
14,0.0
99,0.0
148,0.0
149,0.0
150,41.97135666606887
151,0.0
188,0.0
213,0.0
214,0.0
2,5, 1, 5, 0, 2, 0.00,60.00,Friday
7,18.246054320265117
8,-1162.7270576424607
9,-1179.2923307255733
10,18.91378805264793
11,-4870.910703420841
12,-4901.398849126532
13,44.906248509476306
14,0.0
99,0.0
148,0.0
149,0.0
150,43.06680602729293
151,0.0
188,0.0
213,0.0
214,0.0
2,5, 1, 5, 0, 3, 0.00,60.00,Friday
7,17.83329474363409
8,-922.2555825590069
9,-960.1265426151567
10,18.503227740515392
11,-4523.776113046489
12,-4575.374741436593
13,46.086637319101655
14,0.0
99,0.0
148,0.0
149,0.0
150,44.187221845521094
151,0.0
188,0.0
213,0.0
214,0.0
2,5, 1, 5, 0, 4, 0.00,60.00,Friday
7,17.50897538572155
8,-766.9215563759763
9,-778.0957130697423
10,18.123731337178697
11,-4216.367954852808
12,-4249.936568999423
13,47.038755484579596
14,0.0
99,0.0
148,0.0
149,0.0
150,45.25209176395961
151,0.0
188,0.0
213,0.0
214,0.0
2,5, 1, 5, 0, 5, 0.00,60.00,Friday
7,17.232791100951008
8,-641.0749342869776
9,-659.5798577534555
10,17.769624140607558
11,-3888.1972496126623
12,-3946.1987697097425
13,47.867064470705174
14,0.0
99,0.0
148,0.0
149,0.0
150,46.27177981379202
151,0.0
188,0.0
213,0.0
214,0.0
2,5, 1, 5, 0, 6, 0.00,60.00,Friday
7,17.007128998229398
8,-533.3649716415957
9,-540.7395973939101
10,17.456999663789375
11,-3305.852475581986
12,-3378.4915870436953
13,48.55603738258863
14,0.0
99,0.0
148,0.0
149,0.0
150,47.193381303789224
151,0.0
188,0.0
213,0.0
214,0.0
2,5, 1, 5, 0, 7, 0.00,60.00,Friday
7,16.792110601219207
8,-594.6838314450083
9,-580.5763341868899
10,17.185450331091424
11,-3032.136588966729
12,-3042.9655811682774
13,49.22315178734859
14,0.0
99,0.0
148,0.0
149,0.0
150,48.01077459784251
151,0.0
188,0.0
213,0.0
214,0.0
2,5, 1, 5, 0, 8, 0.00,60.00,Friday
7,16.549555343809327
8,-626.1272895762646
9,-631.2586231235427
10,16.924067819614002
11,-2995.4729430867956
12,-3005.0408328972894
13,49.98803021369327
14,0.0
99,0.0
148,0.0
149,0.0
150,48.812709690676456
151,0.0
188,0.0
213,0.0
214,0.0
2,5, 1, 5, 0, 9, 0.00,60.00,Friday
7,16.336748179971963
8,-423.0560665175291
9,-462.5173185195782
10,16.677790567608767